# vtk DataFile Version 4.2
output-1
ASCII
DATASET UNSTRUCTURED_GRID
POINTS 144 float
0.183 -0.2617 1.901
0.1735 -0.2617 1.901
0.164 -0.2617 1.901
0.1545 -0.2617 1.901
0.145 -0.2617 1.901
0.1354 -0.2617 1.901
0.126 -0.2617 1.901
0.1164 -0.2617 1.901
0.1165 -0.2617 1.901
0.183 -0.2617 1.892
0.1735 -0.2617 1.892
0.164 -0.2617 1.892
0.1545 -0.2617 1.892
0.145 -0.2617 1.892
0.1354 -0.2617 1.892
0.126 -0.2617 1.892
0.1164 -0.2617 1.892
0.1165 -0.2617 1.892
0.183 -0.2617 1.882
0.1735 -0.2617 1.882
0.164 -0.2617 1.882
0.1545 -0.2617 1.882
0.145 -0.2617 1.882
0.1354 -0.2617 1.882
0.126 -0.2617 1.882
0.1164 -0.2617 1.882
0.1165 -0.2617 1.882
0.183 -0.2617 1.873
0.1735 -0.2617 1.873
0.164 -0.2617 1.873
0.1545 -0.2617 1.873
0.145 -0.2617 1.873
0.1354 -0.2617 1.873
0.126 -0.2617 1.873
0.1164 -0.2617 1.873
0.1165 -0.2617 1.873
0.183 -0.2617 1.863
0.1735 -0.2617 1.863
0.164 -0.2617 1.863
0.1545 -0.2617 1.863
0.145 -0.2617 1.863
0.1354 -0.2617 1.863
0.126 -0.2617 1.863
0.1164 -0.2617 1.863
0.1165 -0.2617 1.863
0.183 -0.2617 1.854
0.1735 -0.2617 1.854
0.164 -0.2617 1.854
0.1545 -0.2617 1.854
0.145 -0.2617 1.854
0.1354 -0.2617 1.854
0.126 -0.2617 1.854
0.1164 -0.2617 1.854
0.1165 -0.2617 1.854
0.183 -0.2617 1.844
0.1735 -0.2617 1.844
0.164 -0.2617 1.844
0.1545 -0.2617 1.844
0.145 -0.2617 1.844
0.1354 -0.2617 1.844
0.126 -0.2617 1.844
0.1164 -0.2617 1.844
0.1165 -0.2617 1.844
0.183 -0.2617 1.835
0.1735 -0.2617 1.835
0.164 -0.2617 1.835
0.1545 -0.2617 1.835
0.145 -0.2617 1.835
0.1354 -0.2617 1.835
0.126 -0.2617 1.835
0.1164 -0.2617 1.835
0.1165 -0.2617 1.835
0.183 -0.2617 1.825
0.1735 -0.2617 1.825
0.164 -0.2617 1.825
0.1545 -0.2617 1.825
0.145 -0.2617 1.825
0.1354 -0.2617 1.825
0.126 -0.2617 1.825
0.1164 -0.2617 1.825
0.1165 -0.2617 1.825
0.183 -0.2617 1.816
0.1735 -0.2617 1.816
0.164 -0.2617 1.816
0.1545 -0.2617 1.816
0.145 -0.2617 1.816
0.1354 -0.2617 1.816
0.126 -0.2617 1.816
0.1164 -0.2617 1.816
0.1165 -0.2617 1.816
0.183 -0.2617 1.806
0.1735 -0.2617 1.806
0.164 -0.2617 1.806
0.1545 -0.2617 1.806
0.145 -0.2617 1.806
0.1354 -0.2617 1.806
0.126 -0.2617 1.806
0.1164 -0.2617 1.806
0.1165 -0.2617 1.806
0.183 -0.2617 1.797
0.1735 -0.2617 1.797
0.164 -0.2617 1.797
0.1545 -0.2617 1.797
0.145 -0.2617 1.797
0.1354 -0.2617 1.797
0.126 -0.2617 1.797
0.1164 -0.2617 1.797
0.1165 -0.2617 1.797
0.183 -0.2617 1.787
0.1735 -0.2617 1.787
0.164 -0.2617 1.787
0.1545 -0.2617 1.787
0.145 -0.2617 1.787
0.1354 -0.2617 1.787
0.126 -0.2617 1.787
0.1164 -0.2617 1.787
0.1165 -0.2617 1.787
0.183 -0.2617 1.778
0.1735 -0.2617 1.778
0.164 -0.2617 1.778
0.1545 -0.2617 1.778
0.145 -0.2617 1.778
0.1354 -0.2617 1.778
0.126 -0.2617 1.778
0.1164 -0.2617 1.778
0.1165 -0.2617 1.778
0.183 -0.2617 1.768
0.1735 -0.2617 1.768
0.164 -0.2617 1.768
0.1545 -0.2617 1.768
0.145 -0.2617 1.768
0.1354 -0.2617 1.768
0.126 -0.2617 1.768
0.1164 -0.2617 1.768
0.1165 -0.2617 1.768
0.183 -0.2617 1.759
0.1735 -0.2617 1.759
0.164 -0.2617 1.759
0.1545 -0.2617 1.759
0.145 -0.2617 1.759
0.1354 -0.2617 1.759
0.126 -0.2617 1.759
0.1164 -0.2617 1.759
0.1165 -0.2617 1.759
CELLS 120 600
4 0 1 10 9
4 1 2 11 10
4 2 3 12 11
4 3 4 13 12
4 4 5 14 13
4 5 6 15 14
4 6 7 16 15
4 7 8 17 16
4 9 10 19 18
4 10 11 20 19
4 11 12 21 20
4 12 13 22 21
4 13 14 23 22
4 14 15 24 23
4 15 16 25 24
4 16 17 26 25
4 18 19 28 27
4 19 20 29 28
4 20 21 30 29
4 21 22 31 30
4 22 23 32 31
4 23 24 33 32
4 24 25 34 33
4 25 26 35 34
4 27 28 37 36
4 28 29 38 37
4 29 30 39 38
4 30 31 40 39
4 31 32 41 40
4 32 33 42 41
4 33 34 43 42
4 34 35 44 43
4 36 37 46 45
4 37 38 47 46
4 38 39 48 47
4 39 40 49 48
4 40 41 50 49
4 41 42 51 50
4 42 43 52 51
4 43 44 53 52
4 45 46 55 54
4 46 47 56 55
4 47 48 57 56
4 48 49 58 57
4 49 50 59 58
4 50 51 60 59
4 51 52 61 60
4 52 53 62 61
4 54 55 64 63
4 55 56 65 64
4 56 57 66 65
4 57 58 67 66
4 58 59 68 67
4 59 60 69 68
4 60 61 70 69
4 61 62 71 70
4 63 64 73 72
4 64 65 74 73
4 65 66 75 74
4 66 67 76 75
4 67 68 77 76
4 68 69 78 77
4 69 70 79 78
4 70 71 80 79
4 72 73 82 81
4 73 74 83 82
4 74 75 84 83
4 75 76 85 84
4 76 77 86 85
4 77 78 87 86
4 78 79 88 87
4 79 80 89 88
4 81 82 91 90
4 82 83 92 91
4 83 84 93 92
4 84 85 94 93
4 85 86 95 94
4 86 87 96 95
4 87 88 97 96
4 88 89 98 97
4 90 91 100 99
4 91 92 101 100
4 92 93 102 101
4 93 94 103 102
4 94 95 104 103
4 95 96 105 104
4 96 97 106 105
4 97 98 107 106
4 99 100 109 108
4 100 101 110 109
4 101 102 111 110
4 102 103 112 111
4 103 104 113 112
4 104 105 114 113
4 105 106 115 114
4 106 107 116 115
4 108 109 118 117
4 109 110 119 118
4 110 111 120 119
4 111 112 121 120
4 112 113 122 121
4 113 114 123 122
4 114 115 124 123
4 115 116 125 124
4 117 118 127 126
4 118 119 128 127
4 119 120 129 128
4 120 121 130 129
4 121 122 131 130
4 122 123 132 131
4 123 124 133 132
4 124 125 134 133
4 126 127 136 135
4 127 128 137 136
4 128 129 138 137
4 129 130 139 138
4 130 131 140 139
4 131 132 141 140
4 132 133 142 141
4 133 134 143 142
CELL_TYPES 120
9
9
9
9
9
9
9
9
9
9
9
9
9
9
9
9
9
9
9
9
9
9
9
9
9
9
9
9
9
9
9
9
9
9
9
9
9
9
9
9
9
9
9
9
9
9
9
9
9
9
9
9
9
9
9
9
9
9
9
9
9
9
9
9
9
9
9
9
9
9
9
9
9
9
9
9
9
9
9
9
9
9
9
9
9
9
9
9
9
9
9
9
9
9
9
9
9
9
9
9
9
9
9
9
9
9
9
9
9
9
9
9
9
9
9
9
9
9
9
9
POINT_DATA 144
VECTORS U float
-12.6876 0.0 0.0
-12.5699 0.0 0.0
-12.426 0.0 0.0
-12.2577 0.0 0.0
-12.0533 0.0 0.0
-11.8115 0.0 0.0
-11.5269 0.0 0.0
-11.2048 0.0 0.0
-11.2048 0.0 0.0
-11.7967 0.0 0.0
-11.6896 0.0 0.0
-11.5695 0.0 0.0
-11.4393 0.0 0.0
-11.2898 0.0 0.0
-11.1139 0.0 0.0
-10.9033 0.0 0.0
-10.6568 0.0 0.0
-10.6568 0.0 0.0
-10.9589 0.0 0.0
-10.8328 0.0 0.0
-10.7008 0.0 0.0
-10.5669 0.0 0.0
-10.4248 0.0 0.0
-10.2713 0.0 0.0
-10.0976 0.0 0.0
-9.90903 0.0 0.0
-9.90903 0.0 0.0
-10.2456 0.0 0.0
-10.0894 0.0 0.0
-9.93007 0.0 0.0
-9.77149 0.0 0.0
-9.60864 0.0 0.0
-9.44044 0.0 0.0
-9.26416 0.0 0.0
-9.08267 0.0 0.0
-9.08267 0.0 0.0
-9.68408 0.0 0.0
-9.49923 0.0 0.0
-9.31089 0.0 0.0
-9.12158 0.0 0.0
-8.93 0.0 0.0
-8.73457 0.0 0.0
-8.53468 0.0 0.0
-8.33383 0.0 0.0
-8.33383 0.0 0.0
-9.28437 0.0 0.0
-9.07523 0.0 0.0
-8.86286 0.0 0.0
-8.64809 0.0 0.0
-8.43059 0.0 0.0
-8.20685 0.0 0.0
-7.98214 0.0 0.0
-7.75556 0.0 0.0
-7.75556 0.0 0.0
-9.04707 0.0 0.0
-8.82277 0.0 0.0
-8.59385 0.0 0.0
-8.36166 0.0 0.0
-8.12562 0.0 0.0
-7.88195 0.0 0.0
-7.63743 0.0 0.0
-7.39026 0.0 0.0
-7.39026 0.0 0.0
-8.97207 0.0 0.0
-8.74077 0.0 0.0
-8.50444 0.0 0.0
-8.26377 0.0 0.0
-8.01843 0.0 0.0
-7.76463 0.0 0.0
-7.51131 0.0 0.0
-7.25328 0.0 0.0
-7.25328 0.0 0.0
-9.05695 0.0 0.0
-8.82698 0.0 0.0
-8.59222 0.0 0.0
-8.35232 0.0 0.0
-8.10839 0.0 0.0
-7.85538 0.0 0.0
-7.60259 0.0 0.0
-7.34376 0.0 0.0
-7.34376 0.0 0.0
-9.29813 0.0 0.0
-9.07808 0.0 0.0
-8.8529 0.0 0.0
-8.62267 0.0 0.0
-8.38853 0.0 0.0
-8.14552 0.0 0.0
-7.90197 0.0 0.0
-7.65171 0.0 0.0
-7.65171 0.0 0.0
-9.69089 0.0 0.0
-9.48729 0.0 0.0
-9.27909 0.0 0.0
-9.06461 0.0 0.0
-8.84616 0.0 0.0
-8.61979 0.0 0.0
-8.39152 0.0 0.0
-8.15364 0.0 0.0
-8.15364 0.0 0.0
-10.2272 0.0 0.0
-10.0427 0.0 0.0
-9.85438 0.0 0.0
-9.65911 0.0 0.0
-9.45849 0.0 0.0
-9.2485 0.0 0.0
-9.032 0.0 0.0
-8.80432 0.0 0.0
-8.80432 0.0 0.0
-10.8875 0.0 0.0
-10.7222 0.0 0.0
-10.5524 0.0 0.0
-10.3728 0.0 0.0
-10.1841 0.0 0.0
-9.98107 0.0 0.0
-9.76449 0.0 0.0
-9.53375 0.0 0.0
-9.53375 0.0 0.0
-11.6407 0.0 0.0
-11.4872 0.0 0.0
-11.3254 0.0 0.0
-11.1481 0.0 0.0
-10.9553 0.0 0.0
-10.7431 0.0 0.0
-10.5108 0.0 0.0
-10.2573 0.0 0.0
-10.2573 0.0 0.0
-12.4331 0.0 0.0
-12.2752 0.0 0.0
-12.1027 0.0 0.0
-11.908 0.0 0.0
-11.6934 0.0 0.0
-11.4521 0.0 0.0
-11.1937 0.0 0.0
-10.9124 0.0 0.0
-10.9124 0.0 0.0
-13.1906 0.0 0.0
-13.0086 0.0 0.0
-12.8071 0.0 0.0
-12.5787 0.0 0.0
-12.3346 0.0 0.0
-12.065 0.0 0.0
-11.786 0.0 0.0
-11.4939 0.0 0.0
-11.4939 0.0 0.0
